; 20 ps NPT teaching run; continue from nvt.cpt
define = -DPOSRES
integrator = md
dt = 0.002
nsteps = 10000
continuation = yes
constraints = h-bonds
constraint-algorithm = lincs
lincs-order = 4
cutoff-scheme = Verlet
nstlist = 20
coulombtype = PME
rcoulomb = 1.0
vdwtype = Cut-off
rvdw = 1.0
DispCorr = EnerPres
tcoupl = V-rescale
tc-grps = Protein Non-Protein
tau-t = 1.0 1.0
ref-t = 300 300
pcoupl = C-rescale
pcoupltype = isotropic
tau-p = 5.0
ref-p = 1.0
compressibility = 4.5e-5
refcoord-scaling = com
pbc = xyz
gen-vel = no
nstxout = 0
nstvout = 0
nstfout = 0
nstxout-compressed = 500
nstenergy = 100
nstlog = 500

