[ 2 ]
92
99
[ 3 ]
86
87
91
94
96
[ 4 ]
93
[ 10 ]
101
[ 11 ]
85
88
89
95
100
[ 18 ]
90
97
98
[ 19 ]
71
77
78
84
[ 26 ]
80
[ 27 ]
76
79
81
[ 28 ]
69
70
72
73
74
75
82
83
[ 29 ]
46
66
[ 36 ]
44
45
68
[ 37 ]
54
60
61
67
[ 38 ]
47
48
49
55
56
62
63
64
65
[ 39 ]
50
[ 41 ]
17
30
[ 43 ]
1
12
40
[ 45 ]
43
51
52
53
59
[ 46 ]
57
58
[ 48 ]
33
[ 49 ]
25
28
31
34
35
[ 50 ]
16
27
36
39
[ 51 ]
13
14
18
19
23
[ 52 ]
2
11
20
21
22
41
42
[ 53 ]
8
[ 54 ]
3
4
9
[ 56 ]
32
[ 57 ]
26
29
[ 58 ]
37
[ 59 ]
15
24
38
[ 60 ]
7
10
[ 61 ]
6
[ 62 ]
5
